Program Version,EnergyPlus-Windows-64 8.0.0.008, YMD=2015.10.15 14:57
1,5,Environment Title[],Latitude[deg],Longitude[deg],Time Zone[],Elevation[m]
2,6,Day of Simulation[],Month[],Day of Month[],DST Indicator[1=yes 0=no],Hour[],StartMinute[],EndMinute[],DayType
3,3,Cumulative Day of Simulation[],Month[],Day of Month[],DST Indicator[1=yes 0=no],DayType  ! When Daily Report Variables Requested
4,2,Cumulative Days of Simulation[],Month[]  ! When Monthly Report Variables Requested
5,1,Cumulative Days of Simulation[] ! When Run Period Report Variables Requested
6,1,Environment,Site Outdoor Air Drybulb Temperature [C] !TimeStep
152,1,WEST ZONE,Zone Windows Total Heat Gain Rate [W] !TimeStep
153,1,WEST ZONE,Zone Windows Total Heat Loss Rate [W] !TimeStep
154,1,EAST ZONE,Zone Windows Total Heat Gain Rate [W] !TimeStep
155,1,EAST ZONE,Zone Windows Total Heat Loss Rate [W] !TimeStep
156,1,NORTH ZONE,Zone Windows Total Heat Gain Rate [W] !TimeStep
157,1,NORTH ZONE,Zone Windows Total Heat Loss Rate [W] !TimeStep
158,1,ZN001:WALL001:WIN001,Surface Outside Face Incident Solar Radiation Rate per Area [W/m2] !TimeStep
159,1,ZN001:WALL001:WIN001,Surface Outside Face Beam Solar Incident Angle Cosine Value [] !TimeStep
160,1,ZN001:WALL001:WIN001,Surface Window Transmitted Solar Radiation Rate [W] !TimeStep
161,1,ZN001:WALL001:WIN001,Surface Window System Solar Transmittance [] !TimeStep
162,1,ZN001:WALL001:WIN001,Surface Window System Solar Reflectance [] !TimeStep
163,1,ZN001:WALL001:WIN001,Surface Window System Solar Absorptance [] !TimeStep
164,1,ZN001:WALL001:WIN001,Surface Shading Device Is On Time Fraction [] !TimeStep
165,1,ZN001:WALL001:WIN001,Surface Window Blind Slat Angle [deg] !TimeStep
166,1,WEST ZONE,Zone Mean Radiant Temperature [C] !TimeStep
167,1,EAST ZONE,Zone Mean Radiant Temperature [C] !TimeStep
168,1,NORTH ZONE,Zone Mean Radiant Temperature [C] !TimeStep
169,1,WEST ZONE,Zone Mean Air Temperature [C] !TimeStep
170,1,EAST ZONE,Zone Mean Air Temperature [C] !TimeStep
171,1,NORTH ZONE,Zone Mean Air Temperature [C] !TimeStep
244,1,WEST ZONE,Zone Air System Sensible Heating Rate [W] !TimeStep
245,1,WEST ZONE,Zone Air System Sensible Cooling Rate [W] !TimeStep
246,1,WEST ZONE,Zone Air Temperature [C] !TimeStep
247,1,WEST ZONE,Zone Air Humidity Ratio [] !TimeStep
280,1,EAST ZONE,Zone Air System Sensible Heating Rate [W] !TimeStep
281,1,EAST ZONE,Zone Air Temperature [C] !TimeStep
282,1,EAST ZONE,Zone Air Humidity Ratio [] !TimeStep
315,1,NORTH ZONE,Zone Air System Sensible Heating Rate [W] !TimeStep
316,1,NORTH ZONE,Zone Air Temperature [C] !TimeStep
317,1,NORTH ZONE,Zone Air Humidity Ratio [] !TimeStep
477,1,WEST ZONE PEOPLE 1,Zone Thermal Comfort Fanger Model PMV [] !TimeStep
478,1,EAST ZONE PEOPLE 1,Zone Thermal Comfort Fanger Model PMV [] !TimeStep
479,1,NORTH ZONE PEOPLE 1,Zone Thermal Comfort Fanger Model PMV [] !TimeStep
480,1,SHADE_ANGLE_SCHEDULE,Schedule Value [] !TimeStep
End of Data Dictionary
1,Chicago Ohare Intl Ap IL USA TMY3 WMO#=725300,  41.98, -87.92,  -6.00, 201.00
2,1, 6,19, 0, 1, 0.00, 6.00,Tuesday        
6,23.4
152,0.0
153,267.202387557376
154,0.0
155,0.0
156,0.0
157,0.0
158,0.0
159,0.0
160,0.0
161,0.0
162,0.0
163,0.0
164,0.0
165,0.0
166,27.9562520522826
167,27.8365749672651
168,27.991610462311
169,27.9865422710945
170,28.2186773316572
171,28.2590014030336
477,1.36235744661684
478,1.37016596601539
479,1.39087338469273
480,90.
244,0.0
245,0.0
246,27.9865422710945
247,9.000000688362266E-003
280,0.0
281,28.2186773316572
282,9.000001918967314E-003
315,0.0
316,28.2590014030336
317,9.000003071596954E-003
2,1, 6,19, 0, 1, 6.00,12.00,Tuesday        
6,22.4
152,0.0
153,304.357150782992
154,0.0
155,0.0
156,0.0
157,0.0
158,0.0
159,0.0
160,0.0
161,0.0
162,0.0
163,0.0
164,0.0
165,0.0
166,27.8952538169487
167,27.8174260977307
168,27.9698833989679
169,27.9162798124504
170,28.2003831303049
171,28.2352838823827
477,1.35130273345832
478,1.36652532134339
479,1.38644894175884
480,90.
244,0.0
245,0.0
246,27.9162798124504
247,9.000000688362266E-003
280,0.0
281,28.2003831303049
282,9.000001918967316E-003
315,0.0
316,28.2352838823827
317,9.000003071596954E-003
2,1, 6,19, 0, 1,12.00,18.00,Tuesday        
6,21.4
152,0.0
153,340.131699949139
154,0.0
155,0.0
156,0.0
157,0.0
158,0.0
159,0.0
160,0.0
161,0.0
162,0.0
163,0.0
164,0.0
165,0.0
166,27.8339083398186
167,27.7981372625076
168,27.9480034698641
169,27.8311780283983
170,28.181510498905
171,28.2112689281764
477,1.33821968385238
478,1.36455039473053
479,1.38197600311662
480,90.
244,0.0
245,0.0
246,27.8311780283983
247,9.000000688362266E-003
280,0.0
281,28.181510498905
282,9.000001918967316E-003
315,0.0
316,28.2112689281764
317,9.000003071596955E-003
2,1, 6,19, 0, 1,18.00,24.00,Tuesday        
6,20.4
152,0.0
153,374.488966112947
154,0.0
155,0.0
156,0.0
157,0.0
158,0.0
159,0.0
160,0.0
161,0.0
162,0.0
163,0.0
164,0.0
165,0.0
166,27.7722895858358
167,27.7786135033081
168,27.9258715387545
169,27.7374487712045
170,28.1620763959165
171,28.1869429009898
477,1.32353583322701
478,1.36083364710341
479,1.37744734046029
480,90.
244,0.0
245,0.0
246,27.7374487712045
247,9.000000688362268E-003
280,0.0
281,28.1620763959165
282,9.000001918967316E-003
315,0.0
316,28.1869429009898
317,9.000003071596955E-003
2,1, 6,19, 0, 1,24.00,30.00,Tuesday        
6,19.4
152,0.0
153,407.428284921134
154,0.0
155,0.0
156,0.0
157,0.0
158,0.0
159,0.0
160,0.0
161,0.0
162,0.0
163,0.0
164,0.0
165,0.0
166,27.7104416665032
167,27.7587246719233
168,27.9033510771342
169,27.6414296094163
170,28.1420598600389
171,28.1622484665394
477,1.30791499704633
478,1.35702147915346
479,1.37284911163992
480,90.
244,0.0
245,0.0
246,27.6414296094163
247,9.000000688362269E-003
280,0.0
281,28.1420598600389
282,9.000001918967316E-003
315,0.0
316,28.1622484665394
317,9.000003071596955E-003
2,1, 6,19, 0, 1,30.00,36.00,Tuesday        
6,18.4
152,0.0
153,438.95842154311
154,0.0
155,0.0
156,0.0
157,0.0
158,0.0
159,0.0
160,0.0
161,0.0
162,0.0
163,0.0
164,0.0
165,0.0
166,27.6484599666051
167,27.7383217074519
168,27.8802870952153
169,27.5470627769466
170,28.1213896098735
171,28.137084740325
477,1.29203950479647
478,1.35309812009541
479,1.3681609365439
480,90.
244,0.0
245,0.0
246,27.5470627769466
247,9.000000688362269E-003
280,0.0
281,28.1213896098735
282,9.000001918967316E-003
315,0.0
316,28.137084740325
317,9.000003071596954E-003
2,1, 6,19, 0, 1,36.00,42.00,Tuesday        
6,17.4
152,0.0
153,465.414780069038
154,0.0
155,0.0
156,0.0
157,0.0
158,0.0
159,0.0
160,0.0
161,0.0
162,0.0
163,0.0
164,0.0
165,0.0
166,27.5898864344003
167,27.7172459133858
168,27.8565162453335
169,27.4574261541488
170,28.0999522586141
171,28.1113160918123
477,1.27666081836058
478,1.34904131837646
479,1.36335682624758
480,90.
244,0.0
245,0.0
246,27.4574261541488
247,9.000000688362269E-003
280,0.0
281,28.0999522586141
282,9.000001918967314E-003
315,0.0
316,28.1113160918123
317,9.000003071596954E-003
2,1, 6,19, 0, 1,42.00,48.00,Tuesday        
6,16.4
152,0.0
153,495.718990803
154,0.0
155,0.0
156,0.0
157,0.0
158,0.0
159,0.0
160,0.0
161,0.0
162,0.0
163,0.0
164,0.0
165,0.0
166,27.5265605275854
167,27.6953353944522
168,27.8318729189184
169,27.3709767599535
170,28.0776059846429
171,28.0847828613342
477,1.26134039491689
478,1.34482383992575
479,1.3584067170802
480,90.
244,0.0
245,0.0
246,27.3709767599535
247,9.000000688362269E-003
280,0.0
281,28.0776059846429
282,9.000001918967316E-003
315,0.0
316,28.0847828613342
317,9.000003071596955E-003
2,1, 6,19, 0, 1,48.00,54.00,Tuesday        
6,15.4
152,0.0
153,524.87519809205
154,0.0
155,0.0
156,0.0
157,0.0
158,0.0
159,0.0
160,0.0
161,0.0
162,0.0
163,0.0
164,0.0
165,0.0
166,27.4628978910074
167,27.672431504803
168,27.8061952442742
169,27.2860976913204
170,28.0541921253527
171,28.0573104358737
477,1.24632898189361
478,1.34041557665401
479,1.35327820914992
480,90.
244,0.0
245,0.0
246,27.2860976913204
247,9.000000688362269E-003
280,0.0
281,28.0541921253527
282,9.000001918967316E-003
315,0.0
316,28.0573104358737
317,9.000003071596955E-003
2,1, 6,19, 0, 1,54.00,60.00,Tuesday        
6,14.4
152,0.0
153,552.876186348174
154,0.0
155,0.0
156,0.0
157,0.0
158,0.0
159,0.0
160,0.0
161,0.0
162,0.0
163,0.0
164,0.0
165,0.0
166,27.3988588319865
167,27.6483854322642
168,27.7793313240031
169,27.202172731405
170,28.029543440947
171,28.0287161254588
477,1.23145106088799
478,1.33578543495692
479,1.34793814287366
480,90.
244,0.0
245,0.0
246,27.202172731405
247,9.000000688362268E-003
280,0.0
281,28.029543440947
282,9.000001918967314E-003
315,0.0
316,28.0287161254588
317,9.000003071596955E-003
2,1, 6,19, 0, 2, 0.00, 6.00,Tuesday        
6,14.63
152,0.0
153,543.586454825976
154,0.0
155,0.0
156,0.0
157,0.0
158,0.0
159,0.0
160,0.0
161,0.0
162,0.0
163,0.0
164,0.0
165,0.0
166,27.3681292881161
167,27.6230637265591
168,27.7511446672507
169,27.1343633855102
170,28.0034840027491
171,27.998807227938
477,1.21964433590217
478,1.3307505008458
479,1.34220160090146
480,90.
244,0.0
245,0.0
246,27.1343633855102
247,9.000000688362268E-003
280,0.0
281,28.0034840027491
282,9.000001918967316E-003
315,0.0
316,27.998807227938
317,9.000003071596955E-003
2,1, 6,19, 0, 2, 6.00,12.00,Tuesday        
6,14.86
152,0.0
153,535.344959313027
154,0.0
155,0.0
156,0.0
157,0.0
158,0.0
159,0.0
160,0.0
161,0.0
162,0.0
163,0.0
164,0.0
165,0.0
166,27.3368189903104
167,27.5963538946637
168,27.7215203759378
169,27.0861463193556
170,27.9758439395522
171,27.9673962568805
477,1.2094973878432
478,1.32543329803851
479,1.33618901627103
480,90.
244,0.0
245,0.0
246,27.0861463193556
247,9.000000688362268E-003
280,0.0
281,27.9758439395522
282,9.000001918967318E-003
315,0.0
316,27.9673962568805
317,9.000003071596954E-003
2,1, 6,19, 0, 2,12.00,18.00,Tuesday        
6,15.09
152,0.0
153,527.272087606112
154,0.0
155,0.0
156,0.0
157,0.0
158,0.0
159,0.0
160,0.0
161,0.0
162,0.0
163,0.0
164,0.0
165,0.0
166,27.3056021014479
167,27.5681815677278
168,27.6903843057217
169,27.0519238910735
170,27.9464668640718
171,27.9343063186923
477,1.2014437854028
478,1.31980821236297
479,1.3298728315929
480,90.
244,0.0
245,0.0
246,27.0519238910735
247,9.000000688362268E-003
280,0.0
281,27.9464668640718
282,9.000001918967318E-003
315,0.0
316,27.9343063186923
317,9.000003071596952E-003
2,1, 6,19, 0, 2,18.00,24.00,Tuesday        
6,15.32
152,0.0
153,519.292459438979
154,0.0
155,0.0
156,0.0
157,0.0
158,0.0
159,0.0
160,0.0
161,0.0
162,0.0
163,0.0
164,0.0
165,0.0
166,27.2743702526992
167,27.5385218549472
168,27.6577155289023
169,27.0246875448015
170,27.9152180263505
171,27.89937357451
477,1.19487822478676
478,1.3138555960641
479,1.32323147468214
480,90.
244,0.0
245,0.0
246,27.0246875448015
247,9.000000688362268E-003
280,0.0
281,27.9152180263505
282,9.000001918967316E-003
315,0.0
316,27.89937357451
317,9.000003071596952E-003
2,1, 6,19, 0, 2,24.00,30.00,Tuesday        
6,15.55
152,0.0
153,511.306324134042
154,0.0
155,0.0
156,0.0
157,0.0
158,0.0
159,0.0
160,0.0
161,0.0
162,0.0
163,0.0
164,0.0
165,0.0
166,27.2429619954891
167,27.5073938246357
168,27.6235399226648
169,26.9998888432808
170,27.881990179793
171,27.8624289569833
477,1.18904007945592
478,1.30756217725698
479,1.31624904994844
480,90.
244,0.0
245,0.0
246,26.9998888432808
247,9.000000688362268E-003
280,0.0
281,27.881990179793
282,9.000001918967316E-003
315,0.0
316,27.8624289569833
317,9.000003071596952E-003
2,1, 6,19, 0, 2,30.00,36.00,Tuesday        
6,15.78
152,0.0
153,503.248949999456
154,0.0
155,0.0
156,0.0
157,0.0
158,0.0
159,0.0
160,0.0
161,0.0
162,0.0
163,0.0
164,0.0
165,0.0
166,27.2112651317774
167,27.4748536504739
168,27.5879263169031
169,26.9756220216344
170,27.8467015532687
171,27.8234178834243
477,1.18343495501271
478,1.30092109400798
479,1.30891294230596
480,90.
244,0.0
245,0.0
246,26.9756220216344
247,9.000000688362268E-003
280,0.0
281,27.8467015532687
282,9.000001918967318E-003
315,0.0
316,27.8234178834243
317,9.000003071596952E-003
2,1, 6,19, 0, 2,36.00,42.00,Tuesday        
6,16.01
152,0.0
153,495.093917708432
154,0.0
155,0.0
156,0.0
157,0.0
158,0.0
159,0.0
160,0.0
161,0.0
162,0.0
163,0.0
164,0.0
165,0.0
166,27.1792482482907
167,27.4409891500073
168,27.5509556365759
169,26.9514608170407
170,27.8092788004327
171,27.7824902643123
477,1.1778571594086
478,1.29393117208022
479,1.30122441078649
480,90.
244,0.0
245,0.0
246,26.9514608170407
247,9.000000688362268E-003
280,0.0
281,27.8092788004327
282,9.000001918967319E-003
315,0.0
316,27.7824902643123
317,9.000003071596954E-003
2,1, 6,19, 0, 2,42.00,48.00,Tuesday        
6,16.24
152,0.0
153,486.837278434686
154,0.0
155,0.0
156,0.0
157,0.0
158,0.0
159,0.0
160,0.0
161,0.0
162,0.0
163,0.0
164,0.0
165,0.0
166,27.1469425058325
167,27.4059124515203
168,27.512743858286
169,26.9274654261818
170,27.769519091483
171,27.7397816937743
477,1.1722642736298
478,1.28659435574382
479,1.29491076726523
480,90.
244,0.0
245,0.0
246,26.9274654261818
247,9.000000688362268E-003
280,0.0
281,27.769519091483
282,9.000001918967319E-003
315,0.0
316,27.7397816937743
317,9.000003071596954E-003
2,1, 6,19, 0, 2,48.00,54.00,Tuesday        
6,16.47
152,0.0
153,478.483251505926
154,0.0
155,0.0
156,0.0
157,0.0
158,0.0
159,0.0
160,0.0
161,0.0
162,0.0
163,0.0
164,0.0
165,0.0
166,27.1144137134503
167,27.3697621017068
168,27.4734290352063
169,26.9037313200298
170,27.7277899960551
171,27.6953533849422
477,1.16666888090174
478,1.27890047877955
479,1.28668486219576
480,90.
244,0.0
245,0.0
246,26.9037313200298
247,9.000000688362268E-003
280,0.0
281,27.7277899960551
282,9.000001918967319E-003
315,0.0
316,27.6953533849422
317,9.000003071596952E-003
2,1, 6,19, 0, 2,54.00,60.00,Tuesday        
6,16.7
152,0.0
153,470.037305529017
154,0.0
155,0.0
156,0.0
157,0.0
158,0.0
159,0.0
160,0.0
161,0.0
162,0.0
163,0.0
164,0.0
165,0.0
166,27.0817429546438
167,27.3326568567647
168,27.4331636218626
169,26.880302537145
170,27.6843958881417
171,27.6491940004837
477,1.16108874123889
478,1.27090133599413
479,1.27818788448782
480,90.
244,0.0
245,0.0
246,26.880302537145
247,9.000000688362268E-003
280,0.0
281,27.6843958881417
282,9.000001918967319E-003
315,0.0
316,27.6491940004837
317,9.000003071596950E-003
2,1, 6,19, 0, 3, 0.00, 6.00,Tuesday        
6,16.7
152,0.0
153,470.314163913039
154,0.0
155,0.0
156,0.0
157,0.0
158,0.0
159,0.0
160,0.0
161,0.0
162,0.0
163,0.0
164,0.0
165,0.0
166,27.0406580965594
167,27.2947451805376
168,27.3920981463557
169,26.8536602718287
170,27.6394891859499
171,27.6013566176728
477,1.15475564565945
478,1.26264432427212
479,1.26943277357549
480,90.
244,0.0
245,0.0
246,26.8536602718287
247,9.000000688362268E-003
280,0.0
281,27.6394891859499
282,9.000001918967319E-003
315,0.0
316,27.6013566176728
317,9.000003071596950E-003
2,1, 6,19, 0, 3, 6.00,12.00,Tuesday        
6,16.7
152,0.0
153,470.427769501565
154,0.0
155,0.0
156,0.0
157,0.0
158,0.0
159,0.0
160,0.0
161,0.0
162,0.0
163,0.0
164,0.0
165,0.0
166,26.9992471650379
167,27.2561767894091
168,27.3503758771966
169,26.8227815920453
170,27.5930286231051
171,27.5527073262079
477,1.1480512430876
478,1.25415995777283
479,1.26043861977332
480,90.
244,0.0
245,0.0
246,26.8227815920453
247,9.000000688362268E-003
280,0.0
281,27.5930286231051
282,9.000001918967319E-003
315,0.0
316,27.5527073262079
317,9.000003071596950E-003
2,1, 6,19, 0, 3,12.00,18.00,Tuesday        
6,16.7
152,0.0
153,470.409889984204
154,0.0
155,0.0
156,0.0
157,0.0
158,0.0
159,0.0
160,0.0
161,0.0
162,0.0
163,0.0
164,0.0
165,0.0
166,26.9575506219695
167,27.2170952881611
168,27.3080556774028
169,26.7887694925867
170,27.5450800100448
171,27.5043980217949
477,1.14087038454486
478,1.24545653507672
479,1.25130305746569
480,90.
244,0.0
245,0.0
246,26.7887694925867
247,9.000000688362268E-003
280,0.0
281,27.5450800100448
282,9.000001918967319E-003
315,0.0
316,27.5043980217949
317,9.000003071596952E-003
2,1, 6,19, 0, 3,18.00,24.00,Tuesday        
6,16.7
152,0.0
153,470.284665511261
154,0.0
155,0.0
156,0.0
157,0.0
158,0.0
159,0.0
160,0.0
161,0.0
162,0.0
163,0.0
164,0.0
165,0.0
166,26.9156593997373
167,27.177590450614
168,27.2653006614984
169,26.7531799350251
170,27.4969144859807
171,27.4570017639061
477,1.1333389274782
478,1.23828682813941
479,1.24216389661432
480,90.
244,0.0
245,0.0
246,26.7531799350251
247,9.000000688362268E-003
280,0.0
281,27.4969144859807
282,9.000001918967319E-003
315,0.0
316,27.4570017639061
317,9.000003071596955E-003
2,1, 6,19, 0, 3,24.00,30.00,Tuesday        
6,16.7
152,0.0
153,470.079452088742
154,0.0
155,0.0
156,0.0
157,0.0
158,0.0
159,0.0
160,0.0
161,0.0
162,0.0
163,0.0
164,0.0
165,0.0
166,26.8736733573375
167,27.137710878935
168,27.2222406573904
169,26.7171200817089
170,27.4495162783348
171,27.410605277479
477,1.12563180547525
478,1.22943588587066
479,1.23309428597999
480,90.
244,0.0
245,0.0
246,26.7171200817089
247,9.000000688362268E-003
280,0.0
281,27.4495162783348
282,9.000001918967319E-003
315,0.0
316,27.410605277479
317,9.000003071596957E-003
2,1, 6,19, 0, 3,30.00,36.00,Tuesday        
6,16.7
152,0.0
153,469.814611874857
154,0.0
155,0.0
156,0.0
157,0.0
158,0.0
159,0.0
160,0.0
161,0.0
162,0.0
163,0.0
164,0.0
165,0.0
166,26.8316775880902
167,27.0975891199409
168,27.178976744124
169,26.6811526981444
170,27.4031762073465
171,27.3651004622658
477,1.11787481848299
478,1.22064472374158
479,1.22411295639828
480,90.
244,0.0
245,0.0
246,26.6811526981444
247,9.000000688362268E-003
280,0.0
281,27.4031762073465
282,9.000001918967318E-003
315,0.0
316,27.3651004622658
317,9.000003071596959E-003
2,1, 6,19, 0, 3,36.00,42.00,Tuesday        
6,16.7
152,0.0
153,469.502284035988
154,0.0
155,0.0
156,0.0
157,0.0
158,0.0
159,0.0
160,0.0
161,0.0
162,0.0
163,0.0
164,0.0
165,0.0
166,26.7897344891501
167,27.0573198513022
168,27.1355845652537
169,26.6455246765124
170,27.3577662347613
171,27.3203892636758
477,1.11013370109644
478,1.2119531652882
479,1.21521552484003
480,90.
244,0.0
245,0.0
246,26.6455246765124
247,9.000000688362268E-003
280,0.0
281,27.3577662347613
282,9.000001918967314E-003
315,0.0
316,27.3203892636758
317,9.000003071596960E-003
2,1, 6,19, 0, 3,42.00,48.00,Tuesday        
6,16.7
152,0.0
153,469.149526101414
154,0.0
155,0.0
156,0.0
157,0.0
158,0.0
159,0.0
160,0.0
161,0.0
162,0.0
163,0.0
164,0.0
165,0.0
166,26.7478811008537
167,27.0169724260633
168,27.0921102088778
169,26.6104274308138
170,27.313053744995
171,27.2765164562219
477,1.10243819465694
478,1.20335410412776
479,1.2063959014135
480,90.
244,0.0
245,0.0
246,26.6104274308138
247,9.000000688362268E-003
280,0.0
281,27.313053744995
282,9.000001918967314E-003
315,0.0
316,27.2765164562219
317,9.000003071596962E-003
2,1, 6,19, 0, 3,48.00,54.00,Tuesday        
6,16.7
152,0.0
153,468.761881024428
154,0.0
155,0.0
156,0.0
157,0.0
158,0.0
159,0.0
160,0.0
161,0.0
162,0.0
163,0.0
164,0.0
165,0.0
166,26.7062185853679
167,26.9765973034689
168,27.0486565323417
169,26.5755153119514
170,27.2688590062648
171,27.2332737425507
477,1.09481810859746
478,1.19482753015334
479,1.19766848602085
480,90.
244,0.0
245,0.0
246,26.5755153119514
247,9.000000688362266E-003
280,0.0
281,27.2688590062648
282,9.000001918967314E-003
315,0.0
316,27.2332737425507
317,9.000003071596962E-003
2,1, 6,19, 0, 3,54.00,60.00,Tuesday        
6,16.7
152,0.0
153,468.339608815283
154,0.0
155,0.0
156,0.0
157,0.0
158,0.0
159,0.0
160,0.0
161,0.0
162,0.0
163,0.0
164,0.0
165,0.0
166,26.6647123882301
167,26.9362320963288
168,27.005268904897
169,26.5406986993455
170,27.2250818389521
171,27.1902757674987
477,1.08723340303411
478,1.1863578477625
479,1.18901536956705
480,90.
244,0.0
245,0.0
246,26.5406986993455
247,9.000000688362266E-003
280,0.0
281,27.2250818389521
282,9.000001918967316E-003
315,0.0
316,27.1902757674987
317,9.000003071596962E-003
2,1, 6,19, 0, 4, 0.00, 6.00,Tuesday        
6,16.7
152,0.0
153,465.514320112481
154,0.0
155,0.0
156,0.0
157,0.0
158,0.0
159,0.0
160,0.0
161,0.0
162,0.0
163,0.0
164,0.0
165,0.0
166,26.6256653545636
167,26.8959057750138
168,26.9619623470331
169,26.5068192820952
170,27.1816744259748
171,27.1472935316482
477,1.07988892707007
478,1.17793711024238
479,1.18039695530774
480,90.
244,0.0
245,0.0
246,26.5068192820952
247,9.000000688362268E-003
280,0.0
281,27.1816744259748
282,9.000001918967318E-003
315,0.0
316,27.1472935316482
317,9.000003071596962E-003
2,1, 6,19, 0, 4, 6.00,12.00,Tuesday        
6,16.7
152,0.0
153,462.692258561976
154,0.0
155,0.0
156,0.0
157,0.0
158,0.0
159,0.0
160,0.0
161,0.0
162,0.0
163,0.0
164,0.0
165,0.0
166,26.5869071487128
167,26.8556412920776
168,26.9187520229506
169,26.4740701815192
170,27.1386113651245
171,27.1042716072265
477,1.07267210876093
478,1.16956237550143
479,1.17179028501122
480,90.
244,0.0
245,0.0
246,26.4740701815192
247,9.000000688362269E-003
280,0.0
281,27.1386113651245
282,9.000001918967318E-003
315,0.0
316,27.1042716072265
317,9.000003071596962E-003
2,1, 6,19, 0, 4,12.00,18.00,Tuesday        
6,16.7
152,0.0
153,459.893559647614
154,0.0
155,0.0
156,0.0
157,0.0
158,0.0
159,0.0
160,0.0
161,0.0
162,0.0
163,0.0
164,0.0
165,0.0
166,26.5484277657378
167,26.8154582023989
168,26.875652407531
169,26.4421587015353
170,27.0958737055989
171,27.0612447444424
477,1.06560258326037
478,1.16123276597798
479,1.16319080014056
480,90.
244,0.0
245,0.0
246,26.4421587015353
247,9.000000688362269E-003
280,0.0
281,27.0958737055989
282,9.000001918967316E-003
315,0.0
316,27.0612447444424
317,9.000003071596962E-003
2,1, 6,19, 0, 4,18.00,24.00,Tuesday        
6,16.7
152,0.0
153,457.114957088714
154,0.0
155,0.0
156,0.0
157,0.0
158,0.0
159,0.0
160,0.0
161,0.0
162,0.0
163,0.0
164,0.0
165,0.0
166,26.5102268746345
167,26.775374668171
168,26.8326790853338
169,26.4107376809219
170,27.0534447811781
171,27.0182676896245
477,1.0586491349507
478,1.15294795776029
479,1.15460364047645
480,90.
244,0.0
245,0.0
246,26.4107376809219
247,9.000000688362269E-003
280,0.0
281,27.0534447811781
282,9.000001918967316E-003
315,0.0
316,27.0182676896245
317,9.000003071596962E-003
2,1, 6,19, 0, 4,24.00,30.00,Tuesday        
6,16.7
152,0.0
153,454.350632092594
154,0.0
155,0.0
156,0.0
157,0.0
158,0.0
159,0.0
160,0.0
161,0.0
162,0.0
163,0.0
164,0.0
165,0.0
166,26.4723012306215
167,26.7354082455242
168,26.7898486401638
169,26.3796194667679
170,27.0113110231069
171,26.9753847453713
477,1.05177446648661
478,1.14470781080388
479,1.14603616662525
480,90.
244,0.0
245,0.0
246,26.3796194667679
247,9.000000688362269E-003
280,0.0
281,27.0113110231069
282,9.000001918967318E-003
315,0.0
316,26.9753847453713
317,9.000003071596962E-003
2,1, 6,19, 0, 4,30.00,36.00,Tuesday        
6,16.7
152,0.0
153,464.005892193507
154,0.0
155,0.0
156,0.0
157,0.0
158,0.0
159,0.0
160,0.0
161,0.0
162,0.0
163,0.0
164,0.0
165,0.0
166,26.4228865893151
167,26.695576419966
168,26.7471783671982
169,26.343780416181
170,26.9694632137974
171,26.9326261879118
477,1.04386506526199
478,1.1365125055366
479,1.13749469333732
480,90.
244,0.0
245,0.0
246,26.343780416181
247,9.000000688362269E-003
280,0.0
281,26.9694632137974
282,9.000001918967319E-003
315,0.0
316,26.9326261879118
317,9.000003071596962E-003
2,1, 6,19, 0, 4,36.00,42.00,Tuesday        
6,16.7
152,0.0
153,461.094187173416
154,0.0
155,0.0
156,0.0
157,0.0
158,0.0
159,0.0
160,0.0
161,0.0
162,0.0
163,0.0
164,0.0
165,0.0
166,26.385008809245
167,26.6558969197086
168,26.7046861406694
169,26.3069570751975
170,26.9278967561135
171,26.8900140453996
477,1.03652626161957
478,1.12836270565987
479,1.12898409522054
480,90.
244,0.0
245,0.0
246,26.3069570751975
247,9.000000688362269E-003
280,0.0
281,26.9278967561135
282,9.000001918967321E-003
315,0.0
316,26.8900140453996
317,9.000003071596962E-003
2,1, 6,19, 0, 4,42.00,48.00,Tuesday        
6,16.7
152,0.0
153,458.243909814522
154,0.0
155,0.0
156,0.0
157,0.0
158,0.0
159,0.0
160,0.0
161,0.0
162,0.0
163,0.0
164,0.0
165,0.0
166,26.3473833082626
167,26.6163875431917
168,26.6623902164705
169,26.2722856109605
170,26.8866111022836
171,26.84756750602
477,1.02910686020021
478,1.12025957092547
479,1.1205084029393
480,90.
244,0.0
245,0.0
246,26.2722856109605
247,9.000000688362269E-003
280,0.0
281,26.8866111022836
282,9.000001918967323E-003
315,0.0
316,26.84756750602
317,9.000003071596962E-003
2,1, 6,19, 0, 4,48.00,54.00,Tuesday        
6,16.7
152,0.0
153,455.444866385575
154,0.0
155,0.0
156,0.0
157,0.0
158,0.0
159,0.0
160,0.0
161,0.0
162,0.0
163,0.0
164,0.0
165,0.0
166,26.3100519096076
167,26.5770652359337
168,26.620308894572
169,26.2405790673996
170,26.8456086959727
171,26.8053054326714
477,1.02194492476448
478,1.11220461063403
479,1.11207134727639
480,90.
244,0.0
245,0.0
246,26.2405790673996
247,9.000000688362269E-003
280,0.0
281,26.8456086959727
282,9.000001918967323E-003
315,0.0
316,26.8053054326714
317,9.000003071596964E-003
2,1, 6,19, 0, 4,54.00,60.00,Tuesday        
6,16.7
152,0.0
153,452.703331664287
154,0.0
155,0.0
156,0.0
157,0.0
158,0.0
159,0.0
160,0.0
161,0.0
162,0.0
163,0.0
164,0.0
165,0.0
166,26.2731648970573
167,26.5379450571771
168,26.5784601034008
169,26.2104461427076
170,26.8048936704532
171,26.7632467634806
477,1.01514107672033
478,1.10419947517954
479,1.10367658814971
480,90.
244,0.0
245,0.0
246,26.2104461427076
247,9.000000688362269E-003
280,0.0
281,26.8048936704532
282,9.000001918967323E-003
315,0.0
316,26.7632467634806
317,9.000003071596967E-003
2,1, 6,19, 0, 5, 0.00, 6.00,Tuesday        
6,16.75
152,0.0
153,451.296005025763
154,0.0
155,0.0
156,0.0
157,0.0
158,0.0
159,0.0
160,0.0
161,0.0
162,0.0
163,0.0
164,0.0
165,0.0
166,26.2353609298666
167,26.499040029352
168,26.5368609947786
169,26.1801324509865
170,26.7644706593109
171,26.7214100818631
477,1.00842071206403
478,1.09624580383449
479,1.09532771966215
480,90.
244,0.0
245,0.0
246,26.1801324509865
247,9.000000688362269E-003
280,0.0
281,26.7644706593109
282,9.000001918967323E-003
315,0.0
316,26.7214100818631
317,9.000003071596969E-003
2,1, 6,19, 0, 5, 6.00,12.00,Tuesday        
6,16.8
152,0.0
153,450.55339150319
154,0.0
155,0.0
156,0.0
157,0.0
158,0.0
159,0.0
160,0.0
161,0.0
162,0.0
163,0.0
164,0.0
165,0.0
166,26.1973876258721
167,26.4603607926643
168,26.4955266171342
169,26.1485476830901
170,26.7243438811986
171,26.6798129159049
477,1.00166629997082
478,1.0883450663697
479,1.08702810109825
480,90.
244,0.0
245,0.0
246,26.1485476830901
247,9.000000688362269E-003
280,0.0
281,26.7243438811986
282,9.000001918967323E-003
315,0.0
316,26.6798129159049
317,9.000003071596969E-003
2,1, 6,19, 0, 5,12.00,18.00,Tuesday        
6,16.85
152,0.0
153,449.225582817603
154,0.0
155,0.0
156,0.0
157,0.0
158,0.0
159,0.0
160,0.0
161,0.0
162,0.0
163,0.0
164,0.0
165,0.0
166,26.1600749261438
167,26.4219100365042
168,26.4544629852402
169,26.1160417089856
170,26.6845152785689
171,26.638469737276
477,0.994838598841376
478,1.08049794853953
479,1.07878013848334
480,90.
244,0.0
245,0.0
246,26.1160417089856
247,9.000000688362269E-003
280,0.0
281,26.6845152785689
282,9.000001918967323E-003
315,0.0
316,26.638469737276
317,9.000003071596969E-003
2,1, 6,19, 0, 5,18.00,24.00,Tuesday        
6,16.9
152,0.0
153,389.991846462907
154,0.0
155,0.0
156,0.0
157,0.0
158,7.00916138104053
159,-0.528114482015542
160,57.4552289367893
161,0.819714996443131
162,9.819018382813720E-002
163,8.209481972873196E-002
164,0.0
165,0.0
166,26.1304244864621
167,26.3836798690792
168,26.4136639835989
169,26.0848765659404
170,26.644981664237
171,26.5973888215548
477,0.988623989083783
478,1.07270391065652
479,1.07058478509201
480,90.
244,0.0
245,0.0
246,26.0848765659404
247,9.000000688362269E-003
280,0.0
281,26.644981664237
282,9.000001918967323E-003
315,0.0
316,26.5973888215548
317,9.000003071596971E-003
2,1, 6,19, 0, 5,24.00,30.00,Tuesday        
6,16.95
152,0.0
153,380.657784373639
154,0.0
155,0.0
156,0.0
157,0.0
158,7.99673772423412
159,-0.513167280303143
160,65.5505518728867
161,0.819715140872031
162,9.819002493461884E-002
163,8.209483419335026E-002
164,0.0
165,0.0
166,26.0974286875541
167,26.345659177881
168,26.3731195446147
169,26.0553511574794
170,26.6057338340529
171,26.5565710734427
477,0.982242699137527
478,1.06496156856997
479,1.06244196839499
480,121.878146277876
244,0.0
245,0.0
246,26.0553511574794
247,9.000000688362268E-003
280,0.0
281,26.6057338340529
282,9.000001918967323E-003
315,0.0
316,26.5565710734427
317,9.000003071596974E-003
2,1, 6,19, 0, 5,30.00,36.00,Tuesday        
6,17.
152,0.0
153,362.293799224884
154,0.0
155,0.0
156,0.0
157,0.0
158,10.0960454096214
159,-0.498071035743876
160,82.7589163426998
161,0.8197153540167
162,9.818979044341701E-002
163,8.209485553988317E-002
164,0.0
165,0.0
166,26.065502973739
167,26.3078530790929
168,26.3328367888201
169,26.0267094719173
170,26.5667620310327
171,26.5160152041019
477,0.97613604281508
478,1.05727040488998
479,1.05435242823552
480,120.875031946912
244,0.0
245,0.0
246,26.0267094719173
247,9.000000688362268E-003
280,0.0
281,26.5667620310327
282,9.000001918967323E-003
315,0.0
316,26.5160152041019
317,9.000003071596978E-003
2,1, 6,19, 0, 5,36.00,42.00,Tuesday        
6,17.05
152,0.0
153,343.78528187066
154,0.0
155,0.0
156,0.0
157,0.0
158,12.2189006228235
159,-0.482836094549688
160,100.16030370469
161,0.81971549507533
162,9.818963525770279E-002
163,8.209486966696740E-002
164,0.0
165,0.0
166,26.0343199891389
167,26.2702836760167
168,26.2928403917891
169,25.9984458912356
170,26.528064309262
171,26.4757259662394
477,0.970193035726412
478,1.04963141894916
479,1.04631829955369
480,119.872462599165
244,0.0
245,0.0
246,25.9984458912356
247,9.000000688362268E-003
280,0.0
281,26.528064309262
282,9.000001918967323E-003
315,0.0
316,26.4757259662394
317,9.000003071596978E-003
2,1, 6,19, 0, 5,42.00,48.00,Tuesday        
6,17.1
152,0.0
153,325.190789808948
154,0.0
155,0.0
156,0.0
157,0.0
158,14.3564712305986
159,-0.467472897988272
160,117.682315534875
161,0.819715594961066
162,9.818952536836634E-002
163,8.209487967056806E-002
164,0.0
165,0.0
166,26.0038417122518
167,26.2329785049032
168,26.2531595350895
169,25.9704464432284
170,26.4896504104324
171,26.4357181987659
477,0.964356205646525
478,1.04204694361388
479,1.03834277623258
480,118.870796231377
244,0.0
245,0.0
246,25.9704464432284
247,9.000000688362268E-003
280,0.0
281,26.4896504104324
282,9.000001918967323E-003
315,0.0
316,26.4357181987659
317,9.000003071596976E-003
2,1, 6,19, 0, 5,48.00,54.00,Tuesday        
6,17.15
152,0.0
153,306.546076220998
154,0.0
155,0.0
156,0.0
157,0.0
158,16.5045415331431
159,-0.451991975227142